; Martini 3 dome CG equilibration -- staged ladder, step6.6 of 5
; Ladder mirrors CHARMM-GUI's protein-in-membrane protocol (build 8579367020).
; All other settings inherited from our KALP-validated eq.mdp. See README.md.
;
; This stage: dt=0.02 ps, 1 ns, protein POSRES 50, lipid headgroup-z 10
define                   = -DPOSRES -DPOSRES_FC=50 -DBILAYER_LIPIDHEAD_FC=10
integrator               = md
dt                       = 0.02
nsteps                   = 50000   ; 1 ns

nstxout                  = 0
nstvout                  = 0
nstfout                  = 0
nstlog                   = 1000
nstxout-compressed       = 1000
compressed-x-precision   = 100

cutoff-scheme            = Verlet
nstlist                  = 20
ns_type                  = grid
pbc                      = xyz
verlet-buffer-tolerance  = 0.005

coulombtype              = reaction-field
rcoulomb                 = 1.1
epsilon_r                = 15
epsilon_rf               = 0
vdw_type                 = cutoff
vdw-modifier             = Potential-shift-verlet
rvdw                     = 1.1

tcoupl                   = v-rescale
tc-grps                  = Protein_Membrane W_ION
tau-t                    = 1.0 1.0
ref-t                    = 303.15 303.15
gen-vel                  = no

Pcoupl                   = c-rescale
Pcoupltype               = semiisotropic
tau-p                    = 5.0
compressibility          = 3e-4 3e-4
ref-p                    = 1.0 1.0
refcoord-scaling         = all

comm-mode                = Linear
nstcomm                  = 100
