; Martini 3 dome CG equilibration
; Verified July 23, 2026 against the official Martini 3 tutorial's validated
; insane-workflow example (cgmartini.nl, KALP transmembrane peptide,
; KALP_new/KALP-worked/insane/equilibration.mdp) — protein-in-membrane, built
; via insane, same as us. Single combined NVT+NPT stage (posres throughout),
; matching the validated reference rather than the two ad-hoc stages this
; project used first (which had unverified isotropic/single-tc-grp/Berendsen
; settings).
define                   = -DPOSRES
integrator               = md
dt                       = 0.01
nsteps                   = 100000   ; 1 ns

nstxout                  = 0
nstvout                  = 0
nstfout                  = 0
nstlog                   = 1000
nstxout-compressed       = 1000
compressed-x-precision   = 100

cutoff-scheme            = Verlet
nstlist                  = 20
ns_type                  = grid
pbc                      = xyz
verlet-buffer-tolerance  = 0.005

coulombtype              = reaction-field
rcoulomb                 = 1.1
epsilon_r                = 15
epsilon_rf               = 0
vdw_type                 = cutoff
vdw-modifier             = Potential-shift-verlet
rvdw                     = 1.1

tcoupl                   = v-rescale
tc-grps                  = Protein_Membrane W_ION
tau-t                    = 1.0 1.0
ref-t                    = 303.15 303.15
gen-vel                  = yes
gen-temp                 = 303.15

Pcoupl                   = c-rescale
Pcoupltype               = semiisotropic
tau-p                    = 4.0
compressibility          = 4.5e-5 4.5e-5
ref-p                    = 1.0 1.0
refcoord-scaling         = com

comm-mode                = Linear
nstcomm                  = 100
